5
Lattice="6.27823232543367 0.0 0.0 0.0 5.515721038703334 0.0 0.0 0.0 5.515721038703332" Properties=species:S:1:pos:R:3:initial_magmoms:R:1 energy=-17.154358962408434 pbc="T T T"
Pb       0.20213530      -0.01077326      -0.01077326       0.00000000
I        3.33905822      -0.02694298      -0.02694298       0.00000000
Cl      -0.01764809       2.73512317      -0.00366345       0.00000000
Cl      -0.01764809      -0.00366345       2.73512317       0.00000000
Cs       4.02740185       2.73767650       2.73767650       0.00000000
