
  ___ ___ ___ _ _ _  
 |   |   |_  | | | | 
 | | | | | . | | | | 
 |__ |  _|___|_____|  22.1.1b1
 |___|_|             

User:   dft22x019@n-62-28-28
Date:   Mon Aug 15 17:04:30 2022
Arch:   x86_64
Pid:    22785
CWD:    /zhome/fa/5/1000203270/CAMD2022/batteries
Python: 3.8.5
gpaw:   /zhome/fa/5/1000203270/CAMD2022/venv/gpaw/gpaw (4191706c58)
_gpaw:  /zhome/fa/5/1000203270/CAMD2022/venv/gpaw/
        _gpaw.cpython-38-x86_64-linux-gnu.so (88bf7688a8)
ase:    /zhome/fa/5/1000203270/CAMD2022/venv/ase/ase (version 3.23.0b1-bcce2b6c57)
numpy:  /zhome/fa/5/1000203270/CAMD2022/venv/lib/python3.8/site-packages/numpy (version 1.22.4)
scipy:  /zhome/fa/5/1000203270/CAMD2022/venv/lib/python3.8/site-packages/scipy (version 1.8.1)
libxc:  4.3.4
units:  Angstrom and eV
cores: 8
OpenMP: False
OMP_NUM_THREADS: 1

Input parameters:
  kpts: [10 10  6]
  mode: {ecut: 500.0,
         name: pw}
  xc: PBE

System changes: positions, numbers, cell, pbc, initial_charges, initial_magmoms 

Initialize ...

species:
  C:
    name: Carbon
    id: 4aa54d4b901d75f77cc0ea3eec22967b
    Z: 6.0
    valence: 4
    core: 2
    charge: 0.0
    file: /zhome/86/d/1666/PAW/gpaw-setups-0.9.20000/C.PBE.gz
    compensation charges: {type: gauss,
                           rc: 0.20,
                           lmax: 2}
    cutoffs: {filter: 1.14,
              core: 1.14}
    valence states:
      #              energy  rcut
      - 2s(2.00)   -13.751   0.635
      - 2p(2.00)    -5.284   0.635
      -  s          13.461   0.635
      -  p          21.927   0.635
      -  d           0.000   0.635
  
    # Using partial waves for C as LCAO basis

Reference energy: -4110.512462  # eV

Spin-paired calculation

Convergence criteria:
 Maximum [total energy] change in last 3 cyles: 0.0005 eV / electron
 Maximum integral of absolute [dens]ity change: 0.0001 electrons / valence electron
 Maximum integral of absolute [eigenst]ate change: 4e-08 eV^2 / valence electron
 Maximum number of scf [iter]ations: 333
 (Square brackets indicate name in SCF output, whereas a 'c' in
 the SCF output indicates the quantity has converged.)

Symmetries present (total): 12

  ( 1  1  0)  ( 1  1  0)  ( 1  0  0)  ( 1  0  0)  ( 0  1  0)  ( 0  1  0)
  ( 0 -1  0)  ( 0 -1  0)  ( 0  1  0)  ( 0  1  0)  (-1 -1  0)  (-1 -1  0)
  ( 0  0  1)  ( 0  0 -1)  ( 0  0  1)  ( 0  0 -1)  ( 0  0  1)  ( 0  0 -1)

  ( 0 -1  0)  ( 0 -1  0)  (-1  0  0)  (-1  0  0)  (-1 -1  0)  (-1 -1  0)
  (-1  0  0)  (-1  0  0)  ( 1  1  0)  ( 1  1  0)  ( 1  0  0)  ( 1  0  0)
  ( 0  0  1)  ( 0  0 -1)  ( 0  0  1)  ( 0  0 -1)  ( 0  0  1)  ( 0  0 -1)
Note: your k-points are not as symmetric as your crystal!

600 k-points: 10 x 10 x 6 Monkhorst-Pack grid
90 k-points in the irreducible part of the Brillouin zone
       k-points in crystal coordinates                weights
   0:     0.05000000   -0.05000000    0.08333333          4/600
   1:     0.05000000   -0.05000000    0.25000000          4/600
   2:     0.05000000   -0.05000000    0.41666667          4/600
   3:     0.05000000    0.05000000    0.08333333          4/600
   4:     0.05000000    0.05000000    0.25000000          4/600
   5:     0.05000000    0.05000000    0.41666667          4/600
   6:     0.15000000   -0.15000000    0.08333333          4/600
   7:     0.15000000   -0.15000000    0.25000000          4/600
   8:     0.15000000   -0.15000000    0.41666667          4/600
   9:     0.15000000   -0.05000000    0.08333333          8/600
          ...
  89:     0.45000000    0.45000000    0.41666667          4/600

Wave functions: Plane wave expansion
  Cutoff energy: 500.000 eV
  Number of coefficients (min, max): 825, 864
  Pulay-stress correction: 0.000000 eV/Ang^3 (de/decut=0.000000)
  Using FFTW library
  ScaLapack parameters: grid=1x1, blocksize=None
  Wavefunction extrapolation:
    Improved wavefunction reuse through dual PAW basis 

Occupation numbers: Fermi-Dirac:
  width: 0.1000  # eV
 

Eigensolver
   Davidson(niter=2) 

Densities:
  Coarse grid: 14*14*35 grid
  Fine grid: 28*28*70 grid
  Total Charge: 0.000000 

Density mixing:
  Method: separate
  Backend: pulay
  Linear mixing parameter: 0.05
  old densities: 5
  Damping of long wavelength oscillations: 50 

Hamiltonian:
  XC and Coulomb potentials evaluated on a 28*28*70 grid
  Using the PBE Exchange-Correlation functional
  External potential:
    NoExternalPotential
 

XC parameters: PBE with 2 nearest neighbor stencil

Memory estimate:
  Process memory now: 122.88 MiB
  Calculator: 7.53 MiB
    Density: 2.78 MiB
      Arrays: 1.36 MiB
      Localized functions: 0.89 MiB
      Mixer: 0.52 MiB
    Hamiltonian: 0.91 MiB
      Arrays: 0.89 MiB
      XC: 0.00 MiB
      Poisson: 0.00 MiB
      vbar: 0.02 MiB
    Wavefunctions: 3.85 MiB
      Arrays psit_nG: 2.03 MiB
      Eigensolver: 0.28 MiB
      Projections: 0.12 MiB
      Projectors: 1.01 MiB
      PW-descriptor: 0.41 MiB

Total number of cores used: 8
Parallelization over k-points: 8

Number of atoms: 4
Number of atomic orbitals: 16
Number of bands in calculation: 14
Number of valence electrons: 16
Bands to converge: occupied

... initialized

Initializing position-dependent things.

Density initialized from atomic densities
Creating initial wave functions:
  14 bands from LCAO basis set

                    
                    
                    
                    
        C  C        
                    
                    
                    
       CC           
                    
                    
                    
                    

Positions:
   0 C      0.000000    0.000000    0.000000    ( 0.0000,  0.0000,  0.0000)
   1 C      0.000000    1.410806    0.000000    ( 0.0000,  0.0000,  0.0000)
   2 C      0.000000    1.410806    3.210928    ( 0.0000,  0.0000,  0.0000)
   3 C      1.221794    0.705403    3.210928    ( 0.0000,  0.0000,  0.0000)

Unit cell:
           periodic     x           y           z      points  spacing
  1. axis:    yes    2.443587    0.000000    0.000000    14     0.1512
  2. axis:    yes   -1.221794    2.116209    0.000000    14     0.1512
  3. axis:    yes    0.000000    0.000000    6.421856    35     0.1835

  Lengths:   2.443587   2.443587   6.421856
  Angles:   90.000000  90.000000 120.000000

Effective grid spacing dv^(1/3) = 0.1692

     iter     time        total  log10-change:
                         energy  eigst   dens
iter:   1 17:04:31   -38.775465
iter:   2 17:04:32   -38.531829  -1.41  -0.79
iter:   3 17:04:32   -38.690093  -0.32  -0.81
iter:   4 17:04:32   -37.191217  -1.64  -0.84
iter:   5 17:04:33   -37.404196  -3.07  -1.15
iter:   6 17:04:33   -36.739405  -1.33  -1.07
iter:   7 17:04:33   -36.739828  -3.20  -2.75
iter:   8 17:04:34   -36.739610c -4.47  -2.84
iter:   9 17:04:34   -36.739593c -5.09  -2.98
iter:  10 17:04:34   -36.739603c -5.69  -3.46
iter:  11 17:04:34   -36.739668c -5.71  -3.22
iter:  12 17:04:35   -36.739603c -5.38  -3.05
iter:  13 17:04:35   -36.739603c -7.25  -4.34c
iter:  14 17:04:35   -36.739603c -8.14c -4.43c

Converged after 14 iterations.

Dipole moment: (-0.882474, 0.509497, -0.000000) |e|*Ang

Energy contributions relative to reference atoms: (reference = -4110.512462)

Kinetic:        +40.518866
Potential:      -40.091808
External:        +0.000000
XC:             -37.202118
Entropy (-ST):   -0.001396
Local:           +0.036155
--------------------------
Free energy:    -36.740301
Extrapolated:   -36.739603

Showing only first 2 kpts
 Kpt  Band  Eigenvalues  Occupancy
  0     6      3.68807    2.00000
  0     7      3.72076    2.00000
  0     8     11.58905    0.00000
  0     9     15.35531    0.00000

  1     6      3.69215    2.00000
  1     7      3.71643    2.00000
  1     8     12.34485    0.00000
  1     9     15.36210    0.00000


Fermi level: 6.84865

Gap: 0.598 eV
Transition (v -> c):
  (s=0, k=58, n=7, [0.35, 0.35, 0.25]) -> (s=0, k=57, n=8, [0.35, 0.35, 0.08])
Stress tensor:
    -0.071587     0.000000     0.000000
     0.000000    -0.071587     0.000000
     0.000000     0.000000    -0.029079
System changes: cell, positions 

Initialize ...

species:
  C:
    name: Carbon
    id: 4aa54d4b901d75f77cc0ea3eec22967b
    Z: 6.0
    valence: 4
    core: 2
    charge: 0.0
    file: /zhome/86/d/1666/PAW/gpaw-setups-0.9.20000/C.PBE.gz
    compensation charges: {type: gauss,
                           rc: 0.20,
                           lmax: 2}
    cutoffs: {filter: 1.14,
              core: 1.14}
    valence states:
      #              energy  rcut
      - 2s(2.00)   -13.751   0.635
      - 2p(2.00)    -5.284   0.635
      -  s          13.461   0.635
      -  p          21.927   0.635
      -  d           0.000   0.635
  
    # Using partial waves for C as LCAO basis

Reference energy: -4110.512462  # eV

Spin-paired calculation

Convergence criteria:
 Maximum [total energy] change in last 3 cyles: 0.0005 eV / electron
 Maximum integral of absolute [dens]ity change: 0.0001 electrons / valence electron
 Maximum integral of absolute [eigenst]ate change: 4e-08 eV^2 / valence electron
 Maximum number of scf [iter]ations: 333
 (Square brackets indicate name in SCF output, whereas a 'c' in
 the SCF output indicates the quantity has converged.)

Symmetries present (total): 12

  ( 1  1  0)  ( 1  1  0)  ( 1  0  0)  ( 1  0  0)  ( 0  1  0)  ( 0  1  0)
  ( 0 -1  0)  ( 0 -1  0)  ( 0  1  0)  ( 0  1  0)  (-1 -1  0)  (-1 -1  0)
  ( 0  0  1)  ( 0  0 -1)  ( 0  0  1)  ( 0  0 -1)  ( 0  0  1)  ( 0  0 -1)

  ( 0 -1  0)  ( 0 -1  0)  (-1  0  0)  (-1  0  0)  (-1 -1  0)  (-1 -1  0)
  (-1  0  0)  (-1  0  0)  ( 1  1  0)  ( 1  1  0)  ( 1  0  0)  ( 1  0  0)
  ( 0  0  1)  ( 0  0 -1)  ( 0  0  1)  ( 0  0 -1)  ( 0  0  1)  ( 0  0 -1)
Note: your k-points are not as symmetric as your crystal!

600 k-points: 10 x 10 x 6 Monkhorst-Pack grid
90 k-points in the irreducible part of the Brillouin zone
       k-points in crystal coordinates                weights
   0:     0.05000000   -0.05000000    0.08333333          4/600
   1:     0.05000000   -0.05000000    0.25000000          4/600
   2:     0.05000000   -0.05000000    0.41666667          4/600
   3:     0.05000000    0.05000000    0.08333333          4/600
   4:     0.05000000    0.05000000    0.25000000          4/600
   5:     0.05000000    0.05000000    0.41666667          4/600
   6:     0.15000000   -0.15000000    0.08333333          4/600
   7:     0.15000000   -0.15000000    0.25000000          4/600
   8:     0.15000000   -0.15000000    0.41666667          4/600
   9:     0.15000000   -0.05000000    0.08333333          8/600
          ...
  89:     0.45000000    0.45000000    0.41666667          4/600

Wave functions: Plane wave expansion
  Cutoff energy: 500.000 eV
  Number of coefficients (min, max): 894, 926
  Pulay-stress correction: 0.000000 eV/Ang^3 (de/decut=0.000000)
  Using FFTW library
  ScaLapack parameters: grid=1x1, blocksize=None
  Wavefunction extrapolation:
    Improved wavefunction reuse through dual PAW basis 

Occupation numbers: Fermi-Dirac:
  width: 0.1000  # eV
 

Eigensolver
   Davidson(niter=2) 

Densities:
  Coarse grid: 14*14*35 grid
  Fine grid: 28*28*70 grid
  Total Charge: 0.000000 

Density mixing:
  Method: separate
  Backend: pulay
  Linear mixing parameter: 0.05
  old densities: 5
  Damping of long wavelength oscillations: 50 

Hamiltonian:
  XC and Coulomb potentials evaluated on a 28*28*70 grid
  Using the PBE Exchange-Correlation functional
  External potential:
    NoExternalPotential
 

XC parameters: PBE with 2 nearest neighbor stencil

Memory estimate:
  Process memory now: 125.67 MiB
  Calculator: 7.85 MiB
    Density: 2.85 MiB
      Arrays: 1.36 MiB
      Localized functions: 0.96 MiB
      Mixer: 0.52 MiB
    Hamiltonian: 0.91 MiB
      Arrays: 0.89 MiB
      XC: 0.00 MiB
      Poisson: 0.00 MiB
      vbar: 0.02 MiB
    Wavefunctions: 4.10 MiB
      Arrays psit_nG: 2.18 MiB
      Eigensolver: 0.30 MiB
      Projections: 0.12 MiB
      Projectors: 1.08 MiB
      PW-descriptor: 0.42 MiB

Total number of cores used: 8
Parallelization over k-points: 8

Number of atoms: 4
Number of atomic orbitals: 16
Number of bands in calculation: 14
Number of valence electrons: 16
Bands to converge: occupied

... initialized

Initializing position-dependent things.

Density initialized from atomic densities
Creating initial wave functions:
  14 bands from LCAO basis set

                    
                    
                    
                    
        C  C        
                    
                    
                    
       CC           
                    
                    
                    
                    

Positions:
   0 C      0.000000    0.000000    0.000000    ( 0.0000,  0.0000,  0.0000)
   1 C      0.000000    1.458718    0.000000    ( 0.0000,  0.0000,  0.0000)
   2 C      0.000000    1.458718    3.255223    ( 0.0000,  0.0000,  0.0000)
   3 C      1.263287    0.729359    3.255223    ( 0.0000,  0.0000,  0.0000)

Unit cell:
           periodic     x           y           z      points  spacing
  1. axis:    yes    2.526574    0.000000    0.000000    14     0.1563
  2. axis:    yes   -1.263287    2.188077    0.000000    14     0.1563
  3. axis:    yes    0.000000    0.000000    6.510446    35     0.1860

  Lengths:   2.526574   2.526574   6.510446
  Angles:   90.000000  90.000000 120.000000

Effective grid spacing dv^(1/3) = 0.1738

     iter     time        total  log10-change:
                         energy  eigst   dens
iter:   1 17:04:37   -38.071450
iter:   2 17:04:38   -37.911869  -1.41  -0.83
iter:   3 17:04:38   -38.226935  -0.40  -0.85
iter:   4 17:04:38   -37.057554  -1.76  -0.87
iter:   5 17:04:39   -37.187036  -3.39  -1.15
iter:   6 17:04:39   -36.629228  -1.35  -1.09
iter:   7 17:04:39   -36.629338  -3.20  -2.62
iter:   8 17:04:40   -36.629365c -4.08  -2.76
iter:   9 17:04:40   -36.629045c -4.48  -2.64
iter:  10 17:04:40   -36.629037c -6.04  -3.40
iter:  11 17:04:41   -36.629085c -5.60  -3.35
iter:  12 17:04:41   -36.629053c -5.63  -3.19
iter:  13 17:04:41   -36.629053c -7.72c -4.45c

Converged after 13 iterations.

Dipole moment: (-0.857184, 0.494895, -0.000000) |e|*Ang

Energy contributions relative to reference atoms: (reference = -4110.512462)

Kinetic:        +21.728465
Potential:      -25.431250
External:        +0.000000
XC:             -32.965226
Entropy (-ST):   -0.001762
Local:           +0.039839
--------------------------
Free energy:    -36.629934
Extrapolated:   -36.629053

Showing only first 2 kpts
 Kpt  Band  Eigenvalues  Occupancy
  0     6      2.81254    2.00000
  0     7      2.84719    2.00000
  0     8     10.99092    0.00000
  0     9     13.84809    0.00000

  1     6      2.81711    2.00000
  1     7      2.84196    2.00000
  1     8     11.71797    0.00000
  1     9     13.85698    0.00000


Fermi level: 5.99386

Gap: 0.538 eV
Transition (v -> c):
  (s=0, k=58, n=7, [0.35, 0.35, 0.25]) -> (s=0, k=57, n=8, [0.35, 0.35, 0.08])
Stress tensor:
     0.179419    -0.000000     0.000000
    -0.000000     0.179419     0.000000
     0.000000     0.000000    -0.024280
System changes: cell, positions 

Initialize ...

species:
  C:
    name: Carbon
    id: 4aa54d4b901d75f77cc0ea3eec22967b
    Z: 6.0
    valence: 4
    core: 2
    charge: 0.0
    file: /zhome/86/d/1666/PAW/gpaw-setups-0.9.20000/C.PBE.gz
    compensation charges: {type: gauss,
                           rc: 0.20,
                           lmax: 2}
    cutoffs: {filter: 1.14,
              core: 1.14}
    valence states:
      #              energy  rcut
      - 2s(2.00)   -13.751   0.635
      - 2p(2.00)    -5.284   0.635
      -  s          13.461   0.635
      -  p          21.927   0.635
      -  d           0.000   0.635
  
    # Using partial waves for C as LCAO basis

Reference energy: -4110.512462  # eV

Spin-paired calculation

Convergence criteria:
 Maximum [total energy] change in last 3 cyles: 0.0005 eV / electron
 Maximum integral of absolute [dens]ity change: 0.0001 electrons / valence electron
 Maximum integral of absolute [eigenst]ate change: 4e-08 eV^2 / valence electron
 Maximum number of scf [iter]ations: 333
 (Square brackets indicate name in SCF output, whereas a 'c' in
 the SCF output indicates the quantity has converged.)

Symmetries present (total): 12

  ( 1  1  0)  ( 1  1  0)  ( 1  0  0)  ( 1  0  0)  ( 0  1  0)  ( 0  1  0)
  ( 0 -1  0)  ( 0 -1  0)  ( 0  1  0)  ( 0  1  0)  (-1 -1  0)  (-1 -1  0)
  ( 0  0  1)  ( 0  0 -1)  ( 0  0  1)  ( 0  0 -1)  ( 0  0  1)  ( 0  0 -1)

  ( 0 -1  0)  ( 0 -1  0)  (-1  0  0)  (-1  0  0)  (-1 -1  0)  (-1 -1  0)
  (-1  0  0)  (-1  0  0)  ( 1  1  0)  ( 1  1  0)  ( 1  0  0)  ( 1  0  0)
  ( 0  0  1)  ( 0  0 -1)  ( 0  0  1)  ( 0  0 -1)  ( 0  0  1)  ( 0  0 -1)
Note: your k-points are not as symmetric as your crystal!

600 k-points: 10 x 10 x 6 Monkhorst-Pack grid
90 k-points in the irreducible part of the Brillouin zone
       k-points in crystal coordinates                weights
   0:     0.05000000   -0.05000000    0.08333333          4/600
   1:     0.05000000   -0.05000000    0.25000000          4/600
   2:     0.05000000   -0.05000000    0.41666667          4/600
   3:     0.05000000    0.05000000    0.08333333          4/600
   4:     0.05000000    0.05000000    0.25000000          4/600
   5:     0.05000000    0.05000000    0.41666667          4/600
   6:     0.15000000   -0.15000000    0.08333333          4/600
   7:     0.15000000   -0.15000000    0.25000000          4/600
   8:     0.15000000   -0.15000000    0.41666667          4/600
   9:     0.15000000   -0.05000000    0.08333333          8/600
          ...
  89:     0.45000000    0.45000000    0.41666667          4/600

Wave functions: Plane wave expansion
  Cutoff energy: 500.000 eV
  Number of coefficients (min, max): 862, 897
  Pulay-stress correction: 0.000000 eV/Ang^3 (de/decut=0.000000)
  Using FFTW library
  ScaLapack parameters: grid=1x1, blocksize=None
  Wavefunction extrapolation:
    Improved wavefunction reuse through dual PAW basis 

Occupation numbers: Fermi-Dirac:
  width: 0.1000  # eV
 

Eigensolver
   Davidson(niter=2) 

Densities:
  Coarse grid: 14*14*35 grid
  Fine grid: 28*28*70 grid
  Total Charge: 0.000000 

Density mixing:
  Method: separate
  Backend: pulay
  Linear mixing parameter: 0.05
  old densities: 5
  Damping of long wavelength oscillations: 50 

Hamiltonian:
  XC and Coulomb potentials evaluated on a 28*28*70 grid
  Using the PBE Exchange-Correlation functional
  External potential:
    NoExternalPotential
 

XC parameters: PBE with 2 nearest neighbor stencil

Memory estimate:
  Process memory now: 127.69 MiB
  Calculator: 7.70 MiB
    Density: 2.81 MiB
      Arrays: 1.36 MiB
      Localized functions: 0.93 MiB
      Mixer: 0.52 MiB
    Hamiltonian: 0.91 MiB
      Arrays: 0.89 MiB
      XC: 0.00 MiB
      Poisson: 0.00 MiB
      vbar: 0.02 MiB
    Wavefunctions: 3.98 MiB
      Arrays psit_nG: 2.11 MiB
      Eigensolver: 0.29 MiB
      Projections: 0.12 MiB
      Projectors: 1.04 MiB
      PW-descriptor: 0.41 MiB

Total number of cores used: 8
Parallelization over k-points: 8

Number of atoms: 4
Number of atomic orbitals: 16
Number of bands in calculation: 14
Number of valence electrons: 16
Bands to converge: occupied

... initialized

Initializing position-dependent things.

Density initialized from atomic densities
Creating initial wave functions:
  14 bands from LCAO basis set

                    
                    
                    
                    
        C  C        
                    
                    
                    
       CC           
                    
                    
                    
                    

Positions:
   0 C      0.000000    0.000000    0.000000    ( 0.0000,  0.0000,  0.0000)
   1 C      0.000000    1.424626    0.000000    ( 0.0000,  0.0000,  0.0000)
   2 C      0.000000    1.424626    3.270330    ( 0.0000,  0.0000,  0.0000)
   3 C      1.233762    0.712313    3.270330    ( 0.0000,  0.0000,  0.0000)

Unit cell:
           periodic     x           y           z      points  spacing
  1. axis:    yes    2.467525    0.000000    0.000000    14     0.1526
  2. axis:    yes   -1.233762    2.136939    0.000000    14     0.1526
  3. axis:    yes    0.000000    0.000000    6.540659    35     0.1869

  Lengths:   2.467525   2.467525   6.540659
  Angles:   90.000000  90.000000 120.000000

Effective grid spacing dv^(1/3) = 0.1713

     iter     time        total  log10-change:
                         energy  eigst   dens
iter:   1 17:04:43   -38.641830
iter:   2 17:04:44   -38.424925  -1.39  -0.80
iter:   3 17:04:44   -38.749043  -0.33  -0.82
iter:   4 17:04:44   -37.259102  -1.64  -0.84
iter:   5 17:04:45   -37.417665  -3.35  -1.13
iter:   6 17:04:45   -36.784747  -1.33  -1.07
iter:   7 17:04:45   -36.784994  -3.19  -2.65
iter:   8 17:04:46   -36.784661c -4.55  -2.76
iter:   9 17:04:46   -36.784652c -5.30  -3.10
iter:  10 17:04:46   -36.784652c -5.52  -3.42
iter:  11 17:04:46   -36.784742c -5.48  -3.23
iter:  12 17:04:47   -36.784654c -5.25  -2.97
iter:  13 17:04:47   -36.784654c -7.01  -4.32c
iter:  14 17:04:47   -36.784654c -8.46c -4.43c

Converged after 14 iterations.

Dipole moment: (-0.874649, 0.504979, -0.000000) |e|*Ang

Energy contributions relative to reference atoms: (reference = -4110.512462)

Kinetic:        +34.673300
Potential:      -35.592400
External:        +0.000000
XC:             -35.901801
Entropy (-ST):   -0.001466
Local:           +0.036980
--------------------------
Free energy:    -36.785387
Extrapolated:   -36.784654

Showing only first 2 kpts
 Kpt  Band  Eigenvalues  Occupancy
  0     6      3.27095    2.00000
  0     7      3.30080    2.00000
  0     8     11.11627    0.00000
  0     9     14.75499    0.00000

  1     6      3.27506    2.00000
  1     7      3.29642    2.00000
  1     8     11.82996    0.00000
  1     9     14.76190    0.00000


Fermi level: 6.44408

Gap: 0.586 eV
Transition (v -> c):
  (s=0, k=57, n=7, [0.35, 0.35, 0.08]) -> (s=0, k=57, n=8, [0.35, 0.35, 0.08])
Stress tensor:
     0.009723     0.000000     0.000000
     0.000000     0.009723     0.000000
     0.000000     0.000000    -0.022628
System changes: cell, positions 

Initialize ...

species:
  C:
    name: Carbon
    id: 4aa54d4b901d75f77cc0ea3eec22967b
    Z: 6.0
    valence: 4
    core: 2
    charge: 0.0
    file: /zhome/86/d/1666/PAW/gpaw-setups-0.9.20000/C.PBE.gz
    compensation charges: {type: gauss,
                           rc: 0.20,
                           lmax: 2}
    cutoffs: {filter: 1.14,
              core: 1.14}
    valence states:
      #              energy  rcut
      - 2s(2.00)   -13.751   0.635
      - 2p(2.00)    -5.284   0.635
      -  s          13.461   0.635
      -  p          21.927   0.635
      -  d           0.000   0.635
  
    # Using partial waves for C as LCAO basis

Reference energy: -4110.512462  # eV

Spin-paired calculation

Convergence criteria:
 Maximum [total energy] change in last 3 cyles: 0.0005 eV / electron
 Maximum integral of absolute [dens]ity change: 0.0001 electrons / valence electron
 Maximum integral of absolute [eigenst]ate change: 4e-08 eV^2 / valence electron
 Maximum number of scf [iter]ations: 333
 (Square brackets indicate name in SCF output, whereas a 'c' in
 the SCF output indicates the quantity has converged.)

Symmetries present (total): 12

  ( 1  1  0)  ( 1  1  0)  ( 1  0  0)  ( 1  0  0)  ( 0  1  0)  ( 0  1  0)
  ( 0 -1  0)  ( 0 -1  0)  ( 0  1  0)  ( 0  1  0)  (-1 -1  0)  (-1 -1  0)
  ( 0  0  1)  ( 0  0 -1)  ( 0  0  1)  ( 0  0 -1)  ( 0  0  1)  ( 0  0 -1)

  ( 0 -1  0)  ( 0 -1  0)  (-1  0  0)  (-1  0  0)  (-1 -1  0)  (-1 -1  0)
  (-1  0  0)  (-1  0  0)  ( 1  1  0)  ( 1  1  0)  ( 1  0  0)  ( 1  0  0)
  ( 0  0  1)  ( 0  0 -1)  ( 0  0  1)  ( 0  0 -1)  ( 0  0  1)  ( 0  0 -1)
Note: your k-points are not as symmetric as your crystal!

600 k-points: 10 x 10 x 6 Monkhorst-Pack grid
90 k-points in the irreducible part of the Brillouin zone
       k-points in crystal coordinates                weights
   0:     0.05000000   -0.05000000    0.08333333          4/600
   1:     0.05000000   -0.05000000    0.25000000          4/600
   2:     0.05000000   -0.05000000    0.41666667          4/600
   3:     0.05000000    0.05000000    0.08333333          4/600
   4:     0.05000000    0.05000000    0.25000000          4/600
   5:     0.05000000    0.05000000    0.41666667          4/600
   6:     0.15000000   -0.15000000    0.08333333          4/600
   7:     0.15000000   -0.15000000    0.25000000          4/600
   8:     0.15000000   -0.15000000    0.41666667          4/600
   9:     0.15000000   -0.05000000    0.08333333          8/600
          ...
  89:     0.45000000    0.45000000    0.41666667          4/600

Wave functions: Plane wave expansion
  Cutoff energy: 500.000 eV
  Number of coefficients (min, max): 865, 908
  Pulay-stress correction: 0.000000 eV/Ang^3 (de/decut=0.000000)
  Using FFTW library
  ScaLapack parameters: grid=1x1, blocksize=None
  Wavefunction extrapolation:
    Improved wavefunction reuse through dual PAW basis 

Occupation numbers: Fermi-Dirac:
  width: 0.1000  # eV
 

Eigensolver
   Davidson(niter=2) 

Densities:
  Coarse grid: 14*14*35 grid
  Fine grid: 28*28*70 grid
  Total Charge: 0.000000 

Density mixing:
  Method: separate
  Backend: pulay
  Linear mixing parameter: 0.05
  old densities: 5
  Damping of long wavelength oscillations: 50 

Hamiltonian:
  XC and Coulomb potentials evaluated on a 28*28*70 grid
  Using the PBE Exchange-Correlation functional
  External potential:
    NoExternalPotential
 

XC parameters: PBE with 2 nearest neighbor stencil

Memory estimate:
  Process memory now: 127.79 MiB
  Calculator: 7.75 MiB
    Density: 2.82 MiB
      Arrays: 1.36 MiB
      Localized functions: 0.94 MiB
      Mixer: 0.52 MiB
    Hamiltonian: 0.91 MiB
      Arrays: 0.89 MiB
      XC: 0.00 MiB
      Poisson: 0.00 MiB
      vbar: 0.02 MiB
    Wavefunctions: 4.02 MiB
      Arrays psit_nG: 2.13 MiB
      Eigensolver: 0.29 MiB
      Projections: 0.12 MiB
      Projectors: 1.05 MiB
      PW-descriptor: 0.41 MiB

Total number of cores used: 8
Parallelization over k-points: 8

Number of atoms: 4
Number of atomic orbitals: 16
Number of bands in calculation: 14
Number of valence electrons: 16
Bands to converge: occupied

... initialized

Initializing position-dependent things.

Density initialized from atomic densities
Creating initial wave functions:
  14 bands from LCAO basis set

                    
                    
                    
                    
        C  C        
                    
                    
                    
       CC           
                    
                    
                    
                    

Positions:
   0 C      0.000000    0.000000    0.000000    ( 0.0000,  0.0000,  0.0000)
   1 C      0.000000    1.422473    0.000000    ( 0.0000,  0.0000,  0.0000)
   2 C      0.000000    1.422473    3.311206    ( 0.0000,  0.0000,  0.0000)
   3 C      1.231897    0.711236    3.311206    ( 0.0000,  0.0000,  0.0000)

Unit cell:
           periodic     x           y           z      points  spacing
  1. axis:    yes    2.463795    0.000000    0.000000    14     0.1524
  2. axis:    yes   -1.231897    2.133709    0.000000    14     0.1524
  3. axis:    yes    0.000000    0.000000    6.622412    35     0.1892

  Lengths:   2.463795   2.463795   6.622412
  Angles:   90.000000  90.000000 120.000000

Effective grid spacing dv^(1/3) = 0.1718

     iter     time        total  log10-change:
                         energy  eigst   dens
iter:   1 17:04:50   -38.688623
iter:   2 17:04:50   -38.468679  -1.37  -0.80
iter:   3 17:04:50   -38.879156  -0.31  -0.81
iter:   4 17:04:51   -37.286490  -1.60  -0.82
iter:   5 17:04:51   -37.417834  -3.56  -1.13
iter:   6 17:04:51   -36.796544  -1.34  -1.08
iter:   7 17:04:51   -36.796448  -3.22  -2.58
iter:   8 17:04:52   -36.796229c -4.57  -2.79
iter:   9 17:04:52   -36.796185c -5.28  -3.01
iter:  10 17:04:52   -36.796152c -5.21  -3.24
iter:  11 17:04:53   -36.796207c -5.68  -3.26
iter:  12 17:04:53   -36.796154c -5.38  -3.03
iter:  13 17:04:53   -36.796154c -7.14  -4.31c
iter:  14 17:04:54   -36.796154c -8.70c -4.43c

Converged after 14 iterations.

Dipole moment: (-0.875207, 0.505301, -0.000000) |e|*Ang

Energy contributions relative to reference atoms: (reference = -4110.512462)

Kinetic:        +35.463752
Potential:      -36.230273
External:        +0.000000
XC:             -36.065971
Entropy (-ST):   -0.001424
Local:           +0.037050
--------------------------
Free energy:    -36.796866
Extrapolated:   -36.796154

Showing only first 2 kpts
 Kpt  Band  Eigenvalues  Occupancy
  0     6      3.17301    2.00000
  0     7      3.19926    2.00000
  0     8     10.88340    0.00000
  0     9     14.68823    0.00000

  1     6      3.17621    2.00000
  1     7      3.19527    2.00000
  1     8     11.56852    0.00000
  1     9     14.69337    0.00000


Fermi level: 6.34731

Gap: 0.594 eV
Transition (v -> c):
  (s=0, k=57, n=7, [0.35, 0.35, 0.08]) -> (s=0, k=57, n=8, [0.35, 0.35, 0.08])
Stress tensor:
    -0.002650     0.000000     0.000000
     0.000000    -0.002650     0.000000
     0.000000     0.000000    -0.018889
System changes: cell, positions 

Initialize ...

species:
  C:
    name: Carbon
    id: 4aa54d4b901d75f77cc0ea3eec22967b
    Z: 6.0
    valence: 4
    core: 2
    charge: 0.0
    file: /zhome/86/d/1666/PAW/gpaw-setups-0.9.20000/C.PBE.gz
    compensation charges: {type: gauss,
                           rc: 0.20,
                           lmax: 2}
    cutoffs: {filter: 1.14,
              core: 1.14}
    valence states:
      #              energy  rcut
      - 2s(2.00)   -13.751   0.635
      - 2p(2.00)    -5.284   0.635
      -  s          13.461   0.635
      -  p          21.927   0.635
      -  d           0.000   0.635
  
    # Using partial waves for C as LCAO basis

Reference energy: -4110.512462  # eV

Spin-paired calculation

Convergence criteria:
 Maximum [total energy] change in last 3 cyles: 0.0005 eV / electron
 Maximum integral of absolute [dens]ity change: 0.0001 electrons / valence electron
 Maximum integral of absolute [eigenst]ate change: 4e-08 eV^2 / valence electron
 Maximum number of scf [iter]ations: 333
 (Square brackets indicate name in SCF output, whereas a 'c' in
 the SCF output indicates the quantity has converged.)

Symmetries present (total): 12

  ( 1  1  0)  ( 1  1  0)  ( 1  0  0)  ( 1  0  0)  ( 0  1  0)  ( 0  1  0)
  ( 0 -1  0)  ( 0 -1  0)  ( 0  1  0)  ( 0  1  0)  (-1 -1  0)  (-1 -1  0)
  ( 0  0  1)  ( 0  0 -1)  ( 0  0  1)  ( 0  0 -1)  ( 0  0  1)  ( 0  0 -1)

  ( 0 -1  0)  ( 0 -1  0)  (-1  0  0)  (-1  0  0)  (-1 -1  0)  (-1 -1  0)
  (-1  0  0)  (-1  0  0)  ( 1  1  0)  ( 1  1  0)  ( 1  0  0)  ( 1  0  0)
  ( 0  0  1)  ( 0  0 -1)  ( 0  0  1)  ( 0  0 -1)  ( 0  0  1)  ( 0  0 -1)
Note: your k-points are not as symmetric as your crystal!

600 k-points: 10 x 10 x 6 Monkhorst-Pack grid
90 k-points in the irreducible part of the Brillouin zone
       k-points in crystal coordinates                weights
   0:     0.05000000   -0.05000000    0.08333333          4/600
   1:     0.05000000   -0.05000000    0.25000000          4/600
   2:     0.05000000   -0.05000000    0.41666667          4/600
   3:     0.05000000    0.05000000    0.08333333          4/600
   4:     0.05000000    0.05000000    0.25000000          4/600
   5:     0.05000000    0.05000000    0.41666667          4/600
   6:     0.15000000   -0.15000000    0.08333333          4/600
   7:     0.15000000   -0.15000000    0.25000000          4/600
   8:     0.15000000   -0.15000000    0.41666667          4/600
   9:     0.15000000   -0.05000000    0.08333333          8/600
          ...
  89:     0.45000000    0.45000000    0.41666667          4/600

Wave functions: Plane wave expansion
  Cutoff energy: 500.000 eV
  Number of coefficients (min, max): 913, 951
  Pulay-stress correction: 0.000000 eV/Ang^3 (de/decut=0.000000)
  Using FFTW library
  ScaLapack parameters: grid=1x1, blocksize=None
  Wavefunction extrapolation:
    Improved wavefunction reuse through dual PAW basis 

Occupation numbers: Fermi-Dirac:
  width: 0.1000  # eV
 

Eigensolver
   Davidson(niter=2) 

Densities:
  Coarse grid: 14*14*40 grid
  Fine grid: 28*28*80 grid
  Total Charge: 0.000000 

Density mixing:
  Method: separate
  Backend: pulay
  Linear mixing parameter: 0.05
  old densities: 5
  Damping of long wavelength oscillations: 50 

Hamiltonian:
  XC and Coulomb potentials evaluated on a 28*28*80 grid
  Using the PBE Exchange-Correlation functional
  External potential:
    NoExternalPotential
 

XC parameters: PBE with 2 nearest neighbor stencil

Memory estimate:
  Process memory now: 127.87 MiB
  Calculator: 8.40 MiB
    Density: 3.14 MiB
      Arrays: 1.56 MiB
      Localized functions: 0.98 MiB
      Mixer: 0.60 MiB
    Hamiltonian: 1.04 MiB
      Arrays: 1.02 MiB
      XC: 0.00 MiB
      Poisson: 0.00 MiB
      vbar: 0.02 MiB
    Wavefunctions: 4.23 MiB
      Arrays psit_nG: 2.23 MiB
      Eigensolver: 0.31 MiB
      Projections: 0.12 MiB
      Projectors: 1.11 MiB
      PW-descriptor: 0.46 MiB

Total number of cores used: 8
Parallelization over k-points: 8

Number of atoms: 4
Number of atomic orbitals: 16
Number of bands in calculation: 14
Number of valence electrons: 16
Bands to converge: occupied

... initialized

Initializing position-dependent things.

Density initialized from atomic densities
Creating initial wave functions:
  14 bands from LCAO basis set

                    
                    
                    
                    
        C  C        
                    
                    
                    
       CC           
                    
                    
                    
                    

Positions:
   0 C      0.000000    0.000000    0.000000    ( 0.0000,  0.0000,  0.0000)
   1 C      0.000000    1.420672    0.000000    ( 0.0000,  0.0000,  0.0000)
   2 C      0.000000    1.420672    3.494205    ( 0.0000,  0.0000,  0.0000)
   3 C      1.230338    0.710336    3.494205    ( 0.0000,  0.0000,  0.0000)

Unit cell:
           periodic     x           y           z      points  spacing
  1. axis:    yes    2.460676    0.000000    0.000000    14     0.1522
  2. axis:    yes   -1.230338    2.131008    0.000000    14     0.1522
  3. axis:    yes    0.000000    0.000000    6.988409    40     0.1747

  Lengths:   2.460676   2.460676   6.988409
  Angles:   90.000000  90.000000 120.000000

Effective grid spacing dv^(1/3) = 0.1672

     iter     time        total  log10-change:
                         energy  eigst   dens
iter:   1 17:04:57   -38.773892
iter:   2 17:04:57   -38.554440  -1.30  -0.80
iter:   3 17:04:57   -39.302041  -0.27  -0.81
iter:   4 17:04:58   -37.352371  -1.46  -0.79
iter:   5 17:04:58   -37.380105  -3.60  -1.12
iter:   6 17:04:58   -36.859307  -1.24  -1.11
iter:   7 17:04:58   -36.831858  -3.07  -1.78
iter:   8 17:04:59   -36.831671  -4.63  -2.61
iter:   9 17:04:59   -36.831271c -4.56  -2.71
iter:  10 17:04:59   -36.831286c -5.97  -3.24
iter:  11 17:05:00   -36.831286c -7.11  -3.43
iter:  12 17:05:00   -36.831297c -6.12  -3.46
iter:  13 17:05:00   -36.831297c -7.21  -3.95
iter:  14 17:05:01   -36.831297c -8.30c -4.29c

Converged after 14 iterations.

Dipole moment: (-0.874291, 0.504772, -0.000000) |e|*Ang

Energy contributions relative to reference atoms: (reference = -4110.512462)

Kinetic:        +35.946352
Potential:      -36.680084
External:        +0.000000
XC:             -36.134425
Entropy (-ST):   -0.001294
Local:           +0.037507
--------------------------
Free energy:    -36.831944
Extrapolated:   -36.831297

Showing only first 2 kpts
 Kpt  Band  Eigenvalues  Occupancy
  0     6      2.64852    2.00000
  0     7      2.66322    2.00000
  0     8      9.91296    0.00000
  0     9     14.19536    0.00000

  1     6      2.65034    2.00000
  1     7      2.66117    2.00000
  1     8     10.48647    0.00000
  1     9     14.16040    0.00000


Fermi level: 5.82774

Gap: 0.629 eV
Transition (v -> c):
  (s=0, k=57, n=7, [0.35, 0.35, 0.08]) -> (s=0, k=57, n=8, [0.35, 0.35, 0.08])
Stress tensor:
    -0.013128     0.000000     0.000000
     0.000000    -0.013128     0.000000
     0.000000     0.000000    -0.007105
System changes: cell, positions 

Initialize ...

species:
  C:
    name: Carbon
    id: 4aa54d4b901d75f77cc0ea3eec22967b
    Z: 6.0
    valence: 4
    core: 2
    charge: 0.0
    file: /zhome/86/d/1666/PAW/gpaw-setups-0.9.20000/C.PBE.gz
    compensation charges: {type: gauss,
                           rc: 0.20,
                           lmax: 2}
    cutoffs: {filter: 1.14,
              core: 1.14}
    valence states:
      #              energy  rcut
      - 2s(2.00)   -13.751   0.635
      - 2p(2.00)    -5.284   0.635
      -  s          13.461   0.635
      -  p          21.927   0.635
      -  d           0.000   0.635
  
    # Using partial waves for C as LCAO basis

Reference energy: -4110.512462  # eV

Spin-paired calculation

Convergence criteria:
 Maximum [total energy] change in last 3 cyles: 0.0005 eV / electron
 Maximum integral of absolute [dens]ity change: 0.0001 electrons / valence electron
 Maximum integral of absolute [eigenst]ate change: 4e-08 eV^2 / valence electron
 Maximum number of scf [iter]ations: 333
 (Square brackets indicate name in SCF output, whereas a 'c' in
 the SCF output indicates the quantity has converged.)

Symmetries present (total): 12

  ( 1  1  0)  ( 1  1  0)  ( 1  0  0)  ( 1  0  0)  ( 0  1  0)  ( 0  1  0)
  ( 0 -1  0)  ( 0 -1  0)  ( 0  1  0)  ( 0  1  0)  (-1 -1  0)  (-1 -1  0)
  ( 0  0  1)  ( 0  0 -1)  ( 0  0  1)  ( 0  0 -1)  ( 0  0  1)  ( 0  0 -1)

  ( 0 -1  0)  ( 0 -1  0)  (-1  0  0)  (-1  0  0)  (-1 -1  0)  (-1 -1  0)
  (-1  0  0)  (-1  0  0)  ( 1  1  0)  ( 1  1  0)  ( 1  0  0)  ( 1  0  0)
  ( 0  0  1)  ( 0  0 -1)  ( 0  0  1)  ( 0  0 -1)  ( 0  0  1)  ( 0  0 -1)
Note: your k-points are not as symmetric as your crystal!

600 k-points: 10 x 10 x 6 Monkhorst-Pack grid
90 k-points in the irreducible part of the Brillouin zone
       k-points in crystal coordinates                weights
   0:     0.05000000   -0.05000000    0.08333333          4/600
   1:     0.05000000   -0.05000000    0.25000000          4/600
   2:     0.05000000   -0.05000000    0.41666667          4/600
   3:     0.05000000    0.05000000    0.08333333          4/600
   4:     0.05000000    0.05000000    0.25000000          4/600
   5:     0.05000000    0.05000000    0.41666667          4/600
   6:     0.15000000   -0.15000000    0.08333333          4/600
   7:     0.15000000   -0.15000000    0.25000000          4/600
   8:     0.15000000   -0.15000000    0.41666667          4/600
   9:     0.15000000   -0.05000000    0.08333333          8/600
          ...
  89:     0.45000000    0.45000000    0.41666667          4/600

Wave functions: Plane wave expansion
  Cutoff energy: 500.000 eV
  Number of coefficients (min, max): 947, 983
  Pulay-stress correction: 0.000000 eV/Ang^3 (de/decut=0.000000)
  Using FFTW library
  ScaLapack parameters: grid=1x1, blocksize=None
  Wavefunction extrapolation:
    Improved wavefunction reuse through dual PAW basis 

Occupation numbers: Fermi-Dirac:
  width: 0.1000  # eV
 

Eigensolver
   Davidson(niter=2) 

Densities:
  Coarse grid: 14*14*40 grid
  Fine grid: 28*28*80 grid
  Total Charge: 0.000000 

Density mixing:
  Method: separate
  Backend: pulay
  Linear mixing parameter: 0.05
  old densities: 5
  Damping of long wavelength oscillations: 50 

Hamiltonian:
  XC and Coulomb potentials evaluated on a 28*28*80 grid
  Using the PBE Exchange-Correlation functional
  External potential:
    NoExternalPotential
 

XC parameters: PBE with 2 nearest neighbor stencil

Memory estimate:
  Process memory now: 128.41 MiB
  Calculator: 8.57 MiB
    Density: 3.17 MiB
      Arrays: 1.56 MiB
      Localized functions: 1.02 MiB
      Mixer: 0.60 MiB
    Hamiltonian: 1.04 MiB
      Arrays: 1.02 MiB
      XC: 0.00 MiB
      Poisson: 0.00 MiB
      vbar: 0.02 MiB
    Wavefunctions: 4.36 MiB
      Arrays psit_nG: 2.31 MiB
      Eigensolver: 0.32 MiB
      Projections: 0.12 MiB
      Projectors: 1.15 MiB
      PW-descriptor: 0.46 MiB

Total number of cores used: 8
Parallelization over k-points: 8

Number of atoms: 4
Number of atomic orbitals: 16
Number of bands in calculation: 14
Number of valence electrons: 16
Bands to converge: occupied

... initialized

Initializing position-dependent things.

Density initialized from atomic densities
Creating initial wave functions:
  14 bands from LCAO basis set

                    
                    
                    
        C           
           C        
                    
                    
                    
        C           
       C            
                    
                    
                    

Positions:
   0 C      0.000000    0.000000    0.000000    ( 0.0000,  0.0000,  0.0000)
   1 C      0.000000    1.422277    0.000000    ( 0.0000,  0.0000,  0.0000)
   2 C      0.000000    1.422277    3.611376    ( 0.0000,  0.0000,  0.0000)
   3 C      1.231728    0.711138    3.611376    ( 0.0000,  0.0000,  0.0000)

Unit cell:
           periodic     x           y           z      points  spacing
  1. axis:    yes    2.463455    0.000000    0.000000    14     0.1524
  2. axis:    yes   -1.231728    2.133415    0.000000    14     0.1524
  3. axis:    yes    0.000000    0.000000    7.222752    40     0.1806

  Lengths:   2.463455   2.463455   7.222752
  Angles:   90.000000  90.000000 120.000000

Effective grid spacing dv^(1/3) = 0.1692

     iter     time        total  log10-change:
                         energy  eigst   dens
iter:   1 17:05:03   -38.779137
iter:   2 17:05:03   -38.564590  -1.26  -0.80
iter:   3 17:05:03   -39.475698  -0.25  -0.81
iter:   4 17:05:04   -37.373010  -1.41  -0.78
iter:   5 17:05:04   -37.362063  -3.29  -1.11
iter:   6 17:05:04   -36.878468  -1.70  -1.12
iter:   7 17:05:05   -36.845405  -2.46  -1.70
iter:   8 17:05:05   -36.845553  -3.96  -2.69
iter:   9 17:05:05   -36.845598c -5.06  -2.73
iter:  10 17:05:06   -36.845355c -4.59  -2.77
iter:  11 17:05:06   -36.845360c -6.01  -3.60
iter:  12 17:05:06   -36.845352c -6.34  -3.50
iter:  13 17:05:07   -36.845352c -7.86c -4.16c

Converged after 13 iterations.

Dipole moment: (-0.872593, 0.503792, -0.000000) |e|*Ang

Energy contributions relative to reference atoms: (reference = -4110.512462)

Kinetic:        +35.185331
Potential:      -36.111485
External:        +0.000000
XC:             -35.951828
Entropy (-ST):   -0.001242
Local:           +0.033251
--------------------------
Free energy:    -36.845973
Extrapolated:   -36.845352

Showing only first 2 kpts
 Kpt  Band  Eigenvalues  Occupancy
  0     6      2.30073    2.00000
  0     7      2.31092    2.00000
  0     8      9.36296    0.00000
  0     9     13.82860    0.00000

  1     6      2.30205    2.00000
  1     7      2.30936    2.00000
  1     8      9.87710    0.00000
  1     9     13.33400    0.00000


Fermi level: 5.48113

Gap: 0.653 eV
Transition (v -> c):
  (s=0, k=57, n=7, [0.35, 0.35, 0.08]) -> (s=0, k=57, n=8, [0.35, 0.35, 0.08])
Stress tensor:
    -0.004879    -0.000000     0.000000
    -0.000000    -0.004879     0.000000
     0.000000     0.000000    -0.002531
System changes: cell, positions 

Initialize ...

species:
  C:
    name: Carbon
    id: 4aa54d4b901d75f77cc0ea3eec22967b
    Z: 6.0
    valence: 4
    core: 2
    charge: 0.0
    file: /zhome/86/d/1666/PAW/gpaw-setups-0.9.20000/C.PBE.gz
    compensation charges: {type: gauss,
                           rc: 0.20,
                           lmax: 2}
    cutoffs: {filter: 1.14,
              core: 1.14}
    valence states:
      #              energy  rcut
      - 2s(2.00)   -13.751   0.635
      - 2p(2.00)    -5.284   0.635
      -  s          13.461   0.635
      -  p          21.927   0.635
      -  d           0.000   0.635
  
    # Using partial waves for C as LCAO basis

Reference energy: -4110.512462  # eV

Spin-paired calculation

Convergence criteria:
 Maximum [total energy] change in last 3 cyles: 0.0005 eV / electron
 Maximum integral of absolute [dens]ity change: 0.0001 electrons / valence electron
 Maximum integral of absolute [eigenst]ate change: 4e-08 eV^2 / valence electron
 Maximum number of scf [iter]ations: 333
 (Square brackets indicate name in SCF output, whereas a 'c' in
 the SCF output indicates the quantity has converged.)

Symmetries present (total): 12

  ( 1  1  0)  ( 1  1  0)  ( 1  0  0)  ( 1  0  0)  ( 0  1  0)  ( 0  1  0)
  ( 0 -1  0)  ( 0 -1  0)  ( 0  1  0)  ( 0  1  0)  (-1 -1  0)  (-1 -1  0)
  ( 0  0  1)  ( 0  0 -1)  ( 0  0  1)  ( 0  0 -1)  ( 0  0  1)  ( 0  0 -1)

  ( 0 -1  0)  ( 0 -1  0)  (-1  0  0)  (-1  0  0)  (-1 -1  0)  (-1 -1  0)
  (-1  0  0)  (-1  0  0)  ( 1  1  0)  ( 1  1  0)  ( 1  0  0)  ( 1  0  0)
  ( 0  0  1)  ( 0  0 -1)  ( 0  0  1)  ( 0  0 -1)  ( 0  0  1)  ( 0  0 -1)
Note: your k-points are not as symmetric as your crystal!

600 k-points: 10 x 10 x 6 Monkhorst-Pack grid
90 k-points in the irreducible part of the Brillouin zone
       k-points in crystal coordinates                weights
   0:     0.05000000   -0.05000000    0.08333333          4/600
   1:     0.05000000   -0.05000000    0.25000000          4/600
   2:     0.05000000   -0.05000000    0.41666667          4/600
   3:     0.05000000    0.05000000    0.08333333          4/600
   4:     0.05000000    0.05000000    0.25000000          4/600
   5:     0.05000000    0.05000000    0.41666667          4/600
   6:     0.15000000   -0.15000000    0.08333333          4/600
   7:     0.15000000   -0.15000000    0.25000000          4/600
   8:     0.15000000   -0.15000000    0.41666667          4/600
   9:     0.15000000   -0.05000000    0.08333333          8/600
          ...
  89:     0.45000000    0.45000000    0.41666667          4/600

Wave functions: Plane wave expansion
  Cutoff energy: 500.000 eV
  Number of coefficients (min, max): 968, 1003
  Pulay-stress correction: 0.000000 eV/Ang^3 (de/decut=0.000000)
  Using FFTW library
  ScaLapack parameters: grid=1x1, blocksize=None
  Wavefunction extrapolation:
    Improved wavefunction reuse through dual PAW basis 

Occupation numbers: Fermi-Dirac:
  width: 0.1000  # eV
 

Eigensolver
   Davidson(niter=2) 

Densities:
  Coarse grid: 14*14*40 grid
  Fine grid: 28*28*80 grid
  Total Charge: 0.000000 

Density mixing:
  Method: separate
  Backend: pulay
  Linear mixing parameter: 0.05
  old densities: 5
  Damping of long wavelength oscillations: 50 

Hamiltonian:
  XC and Coulomb potentials evaluated on a 28*28*80 grid
  Using the PBE Exchange-Correlation functional
  External potential:
    NoExternalPotential
 

XC parameters: PBE with 2 nearest neighbor stencil

Memory estimate:
  Process memory now: 130.32 MiB
  Calculator: 8.67 MiB
    Density: 3.19 MiB
      Arrays: 1.56 MiB
      Localized functions: 1.04 MiB
      Mixer: 0.60 MiB
    Hamiltonian: 1.04 MiB
      Arrays: 1.02 MiB
      XC: 0.00 MiB
      Poisson: 0.00 MiB
      vbar: 0.02 MiB
    Wavefunctions: 4.44 MiB
      Arrays psit_nG: 2.36 MiB
      Eigensolver: 0.32 MiB
      Projections: 0.12 MiB
      Projectors: 1.17 MiB
      PW-descriptor: 0.47 MiB

Total number of cores used: 8
Parallelization over k-points: 8

Number of atoms: 4
Number of atomic orbitals: 16
Number of bands in calculation: 14
Number of valence electrons: 16
Bands to converge: occupied

... initialized

Initializing position-dependent things.

Density initialized from atomic densities
Creating initial wave functions:
  14 bands from LCAO basis set

                    
                    
                    
        C           
           C        
                    
                    
                    
        C           
       C            
                    
                    
                    

Positions:
   0 C      0.000000    0.000000    0.000000    ( 0.0000,  0.0000,  0.0000)
   1 C      0.000000    1.423264    0.000000    ( 0.0000,  0.0000,  0.0000)
   2 C      0.000000    1.423264    3.680040    ( 0.0000,  0.0000,  0.0000)
   3 C      1.232583    0.711632    3.680040    ( 0.0000,  0.0000,  0.0000)

Unit cell:
           periodic     x           y           z      points  spacing
  1. axis:    yes    2.465165    0.000000    0.000000    14     0.1525
  2. axis:    yes   -1.232583    2.134896    0.000000    14     0.1525
  3. axis:    yes    0.000000    0.000000    7.360080    40     0.1840

  Lengths:   2.465165   2.465165   7.360080
  Angles:   90.000000  90.000000 120.000000

Effective grid spacing dv^(1/3) = 0.1703

     iter     time        total  log10-change:
                         energy  eigst   dens
iter:   1 17:05:09   -38.778093
iter:   2 17:05:09   -38.566880  -1.24  -0.80
iter:   3 17:05:09   -39.563776  -0.24  -0.81
iter:   4 17:05:10   -37.384233  -1.39  -0.77
iter:   5 17:05:10   -37.360570  -3.19  -1.11
iter:   6 17:05:10   -36.860199  -1.57  -1.13
iter:   7 17:05:11   -36.851321  -2.70  -1.95
iter:   8 17:05:11   -36.851771  -4.30  -3.01
iter:   9 17:05:11   -36.852286c -5.07  -2.65
iter:  10 17:05:12   -36.851444c -4.16  -2.50
iter:  11 17:05:12   -36.851446c -6.09  -3.62
iter:  12 17:05:12   -36.851456c -6.15  -3.68
iter:  13 17:05:12   -36.851447c -6.37  -3.52
iter:  14 17:05:13   -36.851447c -7.65c -4.23c

Converged after 14 iterations.

Dipole moment: (-0.871844, 0.503359, -0.000000) |e|*Ang

Energy contributions relative to reference atoms: (reference = -4110.512462)

Kinetic:        +34.751654
Potential:      -35.795000
External:        +0.000000
XC:             -35.845088
Entropy (-ST):   -0.001218
Local:           +0.037596
--------------------------
Free energy:    -36.852056
Extrapolated:   -36.851447

Showing only first 2 kpts
 Kpt  Band  Eigenvalues  Occupancy
  0     6      2.10585    2.00000
  0     7      2.11383    2.00000
  0     8      9.06691    0.00000
  0     9     13.61945    0.00000

  1     6      2.10670    2.00000
  1     7      2.11253    2.00000
  1     8      9.55001    0.00000
  1     9     12.83697    0.00000


Fermi level: 5.28639

Gap: 0.667 eV
Transition (v -> c):
  (s=0, k=57, n=7, [0.35, 0.35, 0.08]) -> (s=0, k=57, n=8, [0.35, 0.35, 0.08])
Stress tensor:
    -0.000045     0.000000     0.000000
     0.000000    -0.000045     0.000000
     0.000000     0.000000    -0.000764
System changes: cell, positions 

Initialize ...

species:
  C:
    name: Carbon
    id: 4aa54d4b901d75f77cc0ea3eec22967b
    Z: 6.0
    valence: 4
    core: 2
    charge: 0.0
    file: /zhome/86/d/1666/PAW/gpaw-setups-0.9.20000/C.PBE.gz
    compensation charges: {type: gauss,
                           rc: 0.20,
                           lmax: 2}
    cutoffs: {filter: 1.14,
              core: 1.14}
    valence states:
      #              energy  rcut
      - 2s(2.00)   -13.751   0.635
      - 2p(2.00)    -5.284   0.635
      -  s          13.461   0.635
      -  p          21.927   0.635
      -  d           0.000   0.635
  
    # Using partial waves for C as LCAO basis

Reference energy: -4110.512462  # eV

Spin-paired calculation

Convergence criteria:
 Maximum [total energy] change in last 3 cyles: 0.0005 eV / electron
 Maximum integral of absolute [dens]ity change: 0.0001 electrons / valence electron
 Maximum integral of absolute [eigenst]ate change: 4e-08 eV^2 / valence electron
 Maximum number of scf [iter]ations: 333
 (Square brackets indicate name in SCF output, whereas a 'c' in
 the SCF output indicates the quantity has converged.)

Symmetries present (total): 12

  ( 1  1  0)  ( 1  1  0)  ( 1  0  0)  ( 1  0  0)  ( 0  1  0)  ( 0  1  0)
  ( 0 -1  0)  ( 0 -1  0)  ( 0  1  0)  ( 0  1  0)  (-1 -1  0)  (-1 -1  0)
  ( 0  0  1)  ( 0  0 -1)  ( 0  0  1)  ( 0  0 -1)  ( 0  0  1)  ( 0  0 -1)

  ( 0 -1  0)  ( 0 -1  0)  (-1  0  0)  (-1  0  0)  (-1 -1  0)  (-1 -1  0)
  (-1  0  0)  (-1  0  0)  ( 1  1  0)  ( 1  1  0)  ( 1  0  0)  ( 1  0  0)
  ( 0  0  1)  ( 0  0 -1)  ( 0  0  1)  ( 0  0 -1)  ( 0  0  1)  ( 0  0 -1)
Note: your k-points are not as symmetric as your crystal!

600 k-points: 10 x 10 x 6 Monkhorst-Pack grid
90 k-points in the irreducible part of the Brillouin zone
       k-points in crystal coordinates                weights
   0:     0.05000000   -0.05000000    0.08333333          4/600
   1:     0.05000000   -0.05000000    0.25000000          4/600
   2:     0.05000000   -0.05000000    0.41666667          4/600
   3:     0.05000000    0.05000000    0.08333333          4/600
   4:     0.05000000    0.05000000    0.25000000          4/600
   5:     0.05000000    0.05000000    0.41666667          4/600
   6:     0.15000000   -0.15000000    0.08333333          4/600
   7:     0.15000000   -0.15000000    0.25000000          4/600
   8:     0.15000000   -0.15000000    0.41666667          4/600
   9:     0.15000000   -0.05000000    0.08333333          8/600
          ...
  89:     0.45000000    0.45000000    0.41666667          4/600

Wave functions: Plane wave expansion
  Cutoff energy: 500.000 eV
  Number of coefficients (min, max): 974, 1013
  Pulay-stress correction: 0.000000 eV/Ang^3 (de/decut=0.000000)
  Using FFTW library
  ScaLapack parameters: grid=1x1, blocksize=None
  Wavefunction extrapolation:
    Improved wavefunction reuse through dual PAW basis 

Occupation numbers: Fermi-Dirac:
  width: 0.1000  # eV
 

Eigensolver
   Davidson(niter=2) 

Densities:
  Coarse grid: 14*14*40 grid
  Fine grid: 28*28*80 grid
  Total Charge: 0.000000 

Density mixing:
  Method: separate
  Backend: pulay
  Linear mixing parameter: 0.05
  old densities: 5
  Damping of long wavelength oscillations: 50 

Hamiltonian:
  XC and Coulomb potentials evaluated on a 28*28*80 grid
  Using the PBE Exchange-Correlation functional
  External potential:
    NoExternalPotential
 

XC parameters: PBE with 2 nearest neighbor stencil

Memory estimate:
  Process memory now: 131.89 MiB
  Calculator: 8.72 MiB
    Density: 3.20 MiB
      Arrays: 1.56 MiB
      Localized functions: 1.05 MiB
      Mixer: 0.60 MiB
    Hamiltonian: 1.04 MiB
      Arrays: 1.02 MiB
      XC: 0.00 MiB
      Poisson: 0.00 MiB
      vbar: 0.02 MiB
    Wavefunctions: 4.48 MiB
      Arrays psit_nG: 2.38 MiB
      Eigensolver: 0.32 MiB
      Projections: 0.12 MiB
      Projectors: 1.18 MiB
      PW-descriptor: 0.47 MiB

Total number of cores used: 8
Parallelization over k-points: 8

Number of atoms: 4
Number of atomic orbitals: 16
Number of bands in calculation: 14
Number of valence electrons: 16
Bands to converge: occupied

... initialized

Initializing position-dependent things.

Density initialized from atomic densities
Creating initial wave functions:
  14 bands from LCAO basis set

                    
                    
                    
        C           
           C        
                    
                    
                    
        C           
       C            
                    
                    
                    

Positions:
   0 C      0.000000    0.000000    0.000000    ( 0.0000,  0.0000,  0.0000)
   1 C      0.000000    1.423390    0.000000    ( 0.0000,  0.0000,  0.0000)
   2 C      0.000000    1.423390    3.709135    ( 0.0000,  0.0000,  0.0000)
   3 C      1.232692    0.711695    3.709135    ( 0.0000,  0.0000,  0.0000)

Unit cell:
           periodic     x           y           z      points  spacing
  1. axis:    yes    2.465383    0.000000    0.000000    14     0.1525
  2. axis:    yes   -1.232692    2.135085    0.000000    14     0.1525
  3. axis:    yes    0.000000    0.000000    7.418271    40     0.1855

  Lengths:   2.465383   2.465383   7.418271
  Angles:   90.000000  90.000000 120.000000

Effective grid spacing dv^(1/3) = 0.1708

     iter     time        total  log10-change:
                         energy  eigst   dens
iter:   1 17:05:15   -38.780489
iter:   2 17:05:15   -38.570449  -1.23  -0.80
iter:   3 17:05:16   -39.604017  -0.24  -0.81
iter:   4 17:05:16   -37.390285  -1.38  -0.77
iter:   5 17:05:16   -37.363013  -3.16  -1.11
iter:   6 17:05:17   -36.859912  -1.55  -1.13
iter:   7 17:05:17   -36.853237  -2.73  -2.00
iter:   8 17:05:17   -36.853641c -4.31  -3.04
iter:   9 17:05:17   -36.854146c -5.05  -2.67
iter:  10 17:05:18   -36.853358c -4.21  -2.51
iter:  11 17:05:18   -36.853372c -6.24  -3.61
iter:  12 17:05:18   -36.853376c -6.37  -3.43
iter:  13 17:05:19   -36.853364c -6.17  -3.43
iter:  14 17:05:19   -36.853367c -7.05  -4.15c
iter:  15 17:05:19   -36.853364c -6.66  -3.75
iter:  16 17:05:20   -36.853364c -8.70c -4.76c

Converged after 16 iterations.

Dipole moment: (-0.871689, 0.503270, -0.000000) |e|*Ang

Energy contributions relative to reference atoms: (reference = -4110.512462)

Kinetic:        +34.672896
Potential:      -35.735556
External:        +0.000000
XC:             -35.826903
Entropy (-ST):   -0.001207
Local:           +0.036802
--------------------------
Free energy:    -36.853967
Extrapolated:   -36.853364

Showing only first 2 kpts
 Kpt  Band  Eigenvalues  Occupancy
  0     6      2.02946    2.00000
  0     7      2.03697    2.00000
  0     8      8.94840    0.00000
  0     9     13.52847    0.00000

  1     6      2.03040    2.00000
  1     7      2.03571    2.00000
  1     8      9.41910    0.00000
  1     9     12.63658    0.00000


Fermi level: 5.21005

Gap: 0.674 eV
Transition (v -> c):
  (s=0, k=57, n=7, [0.35, 0.35, 0.08]) -> (s=0, k=57, n=8, [0.35, 0.35, 0.08])
Stress tensor:
     0.000590    -0.000000     0.000000
    -0.000000     0.000590     0.000000
     0.000000     0.000000    -0.000184
System changes: cell, positions 

Initialize ...

species:
  C:
    name: Carbon
    id: 4aa54d4b901d75f77cc0ea3eec22967b
    Z: 6.0
    valence: 4
    core: 2
    charge: 0.0
    file: /zhome/86/d/1666/PAW/gpaw-setups-0.9.20000/C.PBE.gz
    compensation charges: {type: gauss,
                           rc: 0.20,
                           lmax: 2}
    cutoffs: {filter: 1.14,
              core: 1.14}
    valence states:
      #              energy  rcut
      - 2s(2.00)   -13.751   0.635
      - 2p(2.00)    -5.284   0.635
      -  s          13.461   0.635
      -  p          21.927   0.635
      -  d           0.000   0.635
  
    # Using partial waves for C as LCAO basis

Reference energy: -4110.512462  # eV

Spin-paired calculation

Convergence criteria:
 Maximum [total energy] change in last 3 cyles: 0.0005 eV / electron
 Maximum integral of absolute [dens]ity change: 0.0001 electrons / valence electron
 Maximum integral of absolute [eigenst]ate change: 4e-08 eV^2 / valence electron
 Maximum number of scf [iter]ations: 333
 (Square brackets indicate name in SCF output, whereas a 'c' in
 the SCF output indicates the quantity has converged.)

Symmetries present (total): 12

  ( 1  1  0)  ( 1  1  0)  ( 1  0  0)  ( 1  0  0)  ( 0  1  0)  ( 0  1  0)
  ( 0 -1  0)  ( 0 -1  0)  ( 0  1  0)  ( 0  1  0)  (-1 -1  0)  (-1 -1  0)
  ( 0  0  1)  ( 0  0 -1)  ( 0  0  1)  ( 0  0 -1)  ( 0  0  1)  ( 0  0 -1)

  ( 0 -1  0)  ( 0 -1  0)  (-1  0  0)  (-1  0  0)  (-1 -1  0)  (-1 -1  0)
  (-1  0  0)  (-1  0  0)  ( 1  1  0)  ( 1  1  0)  ( 1  0  0)  ( 1  0  0)
  ( 0  0  1)  ( 0  0 -1)  ( 0  0  1)  ( 0  0 -1)  ( 0  0  1)  ( 0  0 -1)
Note: your k-points are not as symmetric as your crystal!

600 k-points: 10 x 10 x 6 Monkhorst-Pack grid
90 k-points in the irreducible part of the Brillouin zone
       k-points in crystal coordinates                weights
   0:     0.05000000   -0.05000000    0.08333333          4/600
   1:     0.05000000   -0.05000000    0.25000000          4/600
   2:     0.05000000   -0.05000000    0.41666667          4/600
   3:     0.05000000    0.05000000    0.08333333          4/600
   4:     0.05000000    0.05000000    0.25000000          4/600
   5:     0.05000000    0.05000000    0.41666667          4/600
   6:     0.15000000   -0.15000000    0.08333333          4/600
   7:     0.15000000   -0.15000000    0.25000000          4/600
   8:     0.15000000   -0.15000000    0.41666667          4/600
   9:     0.15000000   -0.05000000    0.08333333          8/600
          ...
  89:     0.45000000    0.45000000    0.41666667          4/600

Wave functions: Plane wave expansion
  Cutoff energy: 500.000 eV
  Number of coefficients (min, max): 977, 1014
  Pulay-stress correction: 0.000000 eV/Ang^3 (de/decut=0.000000)
  Using FFTW library
  ScaLapack parameters: grid=1x1, blocksize=None
  Wavefunction extrapolation:
    Improved wavefunction reuse through dual PAW basis 

Occupation numbers: Fermi-Dirac:
  width: 0.1000  # eV
 

Eigensolver
   Davidson(niter=2) 

Densities:
  Coarse grid: 14*14*40 grid
  Fine grid: 28*28*80 grid
  Total Charge: 0.000000 

Density mixing:
  Method: separate
  Backend: pulay
  Linear mixing parameter: 0.05
  old densities: 5
  Damping of long wavelength oscillations: 50 

Hamiltonian:
  XC and Coulomb potentials evaluated on a 28*28*80 grid
  Using the PBE Exchange-Correlation functional
  External potential:
    NoExternalPotential
 

XC parameters: PBE with 2 nearest neighbor stencil

Memory estimate:
  Process memory now: 133.13 MiB
  Calculator: 8.73 MiB
    Density: 3.21 MiB
      Arrays: 1.56 MiB
      Localized functions: 1.05 MiB
      Mixer: 0.60 MiB
    Hamiltonian: 1.04 MiB
      Arrays: 1.02 MiB
      XC: 0.00 MiB
      Poisson: 0.00 MiB
      vbar: 0.02 MiB
    Wavefunctions: 4.48 MiB
      Arrays psit_nG: 2.38 MiB
      Eigensolver: 0.32 MiB
      Projections: 0.12 MiB
      Projectors: 1.18 MiB
      PW-descriptor: 0.47 MiB

Total number of cores used: 8
Parallelization over k-points: 8

Number of atoms: 4
Number of atomic orbitals: 16
Number of bands in calculation: 14
Number of valence electrons: 16
Bands to converge: occupied

... initialized

Initializing position-dependent things.

Density initialized from atomic densities
Creating initial wave functions:
  14 bands from LCAO basis set

                    
                    
                    
        C           
           C        
                    
                    
                    
        C           
       C            
                    
                    
                    

Positions:
   0 C      0.000000    0.000000    0.000000    ( 0.0000,  0.0000,  0.0000)
   1 C      0.000000    1.423312    0.000000    ( 0.0000,  0.0000,  0.0000)
   2 C      0.000000    1.423312    3.718278    ( 0.0000,  0.0000,  0.0000)
   3 C      1.232625    0.711656    3.718278    ( 0.0000,  0.0000,  0.0000)

Unit cell:
           periodic     x           y           z      points  spacing
  1. axis:    yes    2.465249    0.000000    0.000000    14     0.1525
  2. axis:    yes   -1.232625    2.134969    0.000000    14     0.1525
  3. axis:    yes    0.000000    0.000000    7.436556    40     0.1859

  Lengths:   2.465249   2.465249   7.436556
  Angles:   90.000000  90.000000 120.000000

Effective grid spacing dv^(1/3) = 0.1709

     iter     time        total  log10-change:
                         energy  eigst   dens
iter:   1 17:05:22   -38.782784
iter:   2 17:05:22   -38.572887  -1.23  -0.80
iter:   3 17:05:22   -39.614651  -0.24  -0.81
iter:   4 17:05:23   -37.391848  -1.38  -0.77
iter:   5 17:05:23   -37.363548  -3.15  -1.11
iter:   6 17:05:23   -36.859926  -1.55  -1.13
iter:   7 17:05:24   -36.853785  -2.74  -2.02
iter:   8 17:05:24   -36.854176c -4.32  -3.04
iter:   9 17:05:24   -36.854681c -5.04  -2.68
iter:  10 17:05:25   -36.853907c -4.23  -2.51
iter:  11 17:05:25   -36.853928c -6.23  -3.55
iter:  12 17:05:25   -36.853924c -6.37  -3.32
iter:  13 17:05:26   -36.853912c -6.10  -3.43
iter:  14 17:05:26   -36.853914c -7.03  -4.23c
iter:  15 17:05:26   -36.853912c -6.75  -3.77
iter:  16 17:05:26   -36.853912c -8.72c -4.67c

Converged after 16 iterations.

Dipole moment: (-0.871644, 0.503244, -0.000000) |e|*Ang

Energy contributions relative to reference atoms: (reference = -4110.512462)

Kinetic:        +34.692991
Potential:      -35.749493
External:        +0.000000
XC:             -35.831897
Entropy (-ST):   -0.001202
Local:           +0.035088
--------------------------
Free energy:    -36.854513
Extrapolated:   -36.853912

Showing only first 2 kpts
 Kpt  Band  Eigenvalues  Occupancy
  0     6      2.00749    2.00000
  0     7      2.01479    2.00000
  0     8      8.91280    0.00000
  0     9     13.48426    0.00000

  1     6      2.00841    2.00000
  1     7      2.01355    2.00000
  1     8      9.37966    0.00000
  1     9     12.57571    0.00000


Fermi level: 5.18790

Gap: 0.676 eV
Transition (v -> c):
  (s=0, k=57, n=7, [0.35, 0.35, 0.08]) -> (s=0, k=57, n=8, [0.35, 0.35, 0.08])
Stress tensor:
     0.000206    -0.000000     0.000000
    -0.000000     0.000206     0.000000
     0.000000     0.000000     0.000012
System changes: cell, positions 

Initialize ...

species:
  C:
    name: Carbon
    id: 4aa54d4b901d75f77cc0ea3eec22967b
    Z: 6.0
    valence: 4
    core: 2
    charge: 0.0
    file: /zhome/86/d/1666/PAW/gpaw-setups-0.9.20000/C.PBE.gz
    compensation charges: {type: gauss,
                           rc: 0.20,
                           lmax: 2}
    cutoffs: {filter: 1.14,
              core: 1.14}
    valence states:
      #              energy  rcut
      - 2s(2.00)   -13.751   0.635
      - 2p(2.00)    -5.284   0.635
      -  s          13.461   0.635
      -  p          21.927   0.635
      -  d           0.000   0.635
  
    # Using partial waves for C as LCAO basis

Reference energy: -4110.512462  # eV

Spin-paired calculation

Convergence criteria:
 Maximum [total energy] change in last 3 cyles: 0.0005 eV / electron
 Maximum integral of absolute [dens]ity change: 0.0001 electrons / valence electron
 Maximum integral of absolute [eigenst]ate change: 4e-08 eV^2 / valence electron
 Maximum number of scf [iter]ations: 333
 (Square brackets indicate name in SCF output, whereas a 'c' in
 the SCF output indicates the quantity has converged.)

Symmetries present (total): 12

  ( 1  1  0)  ( 1  1  0)  ( 1  0  0)  ( 1  0  0)  ( 0  1  0)  ( 0  1  0)
  ( 0 -1  0)  ( 0 -1  0)  ( 0  1  0)  ( 0  1  0)  (-1 -1  0)  (-1 -1  0)
  ( 0  0  1)  ( 0  0 -1)  ( 0  0  1)  ( 0  0 -1)  ( 0  0  1)  ( 0  0 -1)

  ( 0 -1  0)  ( 0 -1  0)  (-1  0  0)  (-1  0  0)  (-1 -1  0)  (-1 -1  0)
  (-1  0  0)  (-1  0  0)  ( 1  1  0)  ( 1  1  0)  ( 1  0  0)  ( 1  0  0)
  ( 0  0  1)  ( 0  0 -1)  ( 0  0  1)  ( 0  0 -1)  ( 0  0  1)  ( 0  0 -1)
Note: your k-points are not as symmetric as your crystal!

600 k-points: 10 x 10 x 6 Monkhorst-Pack grid
90 k-points in the irreducible part of the Brillouin zone
       k-points in crystal coordinates                weights
   0:     0.05000000   -0.05000000    0.08333333          4/600
   1:     0.05000000   -0.05000000    0.25000000          4/600
   2:     0.05000000   -0.05000000    0.41666667          4/600
   3:     0.05000000    0.05000000    0.08333333          4/600
   4:     0.05000000    0.05000000    0.25000000          4/600
   5:     0.05000000    0.05000000    0.41666667          4/600
   6:     0.15000000   -0.15000000    0.08333333          4/600
   7:     0.15000000   -0.15000000    0.25000000          4/600
   8:     0.15000000   -0.15000000    0.41666667          4/600
   9:     0.15000000   -0.05000000    0.08333333          8/600
          ...
  89:     0.45000000    0.45000000    0.41666667          4/600

Wave functions: Plane wave expansion
  Cutoff energy: 500.000 eV
  Number of coefficients (min, max): 977, 1014
  Pulay-stress correction: 0.000000 eV/Ang^3 (de/decut=0.000000)
  Using FFTW library
  ScaLapack parameters: grid=1x1, blocksize=None
  Wavefunction extrapolation:
    Improved wavefunction reuse through dual PAW basis 

Occupation numbers: Fermi-Dirac:
  width: 0.1000  # eV
 

Eigensolver
   Davidson(niter=2) 

Densities:
  Coarse grid: 14*14*40 grid
  Fine grid: 28*28*80 grid
  Total Charge: 0.000000 

Density mixing:
  Method: separate
  Backend: pulay
  Linear mixing parameter: 0.05
  old densities: 5
  Damping of long wavelength oscillations: 50 

Hamiltonian:
  XC and Coulomb potentials evaluated on a 28*28*80 grid
  Using the PBE Exchange-Correlation functional
  External potential:
    NoExternalPotential
 

XC parameters: PBE with 2 nearest neighbor stencil

Memory estimate:
  Process memory now: 134.67 MiB
  Calculator: 8.73 MiB
    Density: 3.21 MiB
      Arrays: 1.56 MiB
      Localized functions: 1.05 MiB
      Mixer: 0.60 MiB
    Hamiltonian: 1.04 MiB
      Arrays: 1.02 MiB
      XC: 0.00 MiB
      Poisson: 0.00 MiB
      vbar: 0.02 MiB
    Wavefunctions: 4.48 MiB
      Arrays psit_nG: 2.38 MiB
      Eigensolver: 0.32 MiB
      Projections: 0.12 MiB
      Projectors: 1.18 MiB
      PW-descriptor: 0.47 MiB

Total number of cores used: 8
Parallelization over k-points: 8

Number of atoms: 4
Number of atomic orbitals: 16
Number of bands in calculation: 14
Number of valence electrons: 16
Bands to converge: occupied

... initialized

Initializing position-dependent things.

Density initialized from atomic densities
Creating initial wave functions:
  14 bands from LCAO basis set

                    
                    
                    
        C           
           C        
                    
                    
                    
        C           
       C            
                    
                    
                    

Positions:
   0 C      0.000000    0.000000    0.000000    ( 0.0000,  0.0000,  0.0000)
   1 C      0.000000    1.423280    0.000000    ( 0.0000,  0.0000,  0.0000)
   2 C      0.000000    1.423280    3.717818    ( 0.0000,  0.0000,  0.0000)
   3 C      1.232597    0.711640    3.717818    ( 0.0000,  0.0000,  0.0000)

Unit cell:
           periodic     x           y           z      points  spacing
  1. axis:    yes    2.465194    0.000000    0.000000    14     0.1525
  2. axis:    yes   -1.232597    2.134920    0.000000    14     0.1525
  3. axis:    yes    0.000000    0.000000    7.435636    40     0.1859

  Lengths:   2.465194   2.465194   7.435636
  Angles:   90.000000  90.000000 120.000000

Effective grid spacing dv^(1/3) = 0.1709

     iter     time        total  log10-change:
                         energy  eigst   dens
iter:   1 17:05:29   -38.783173
iter:   2 17:05:29   -38.573202  -1.23  -0.80
iter:   3 17:05:29   -39.614645  -0.24  -0.81
iter:   4 17:05:30   -37.391741  -1.38  -0.77
iter:   5 17:05:30   -37.363480  -3.15  -1.11
iter:   6 17:05:30   -36.859925  -1.55  -1.13
iter:   7 17:05:31   -36.853763  -2.74  -2.02
iter:   8 17:05:31   -36.854154c -4.32  -3.04
iter:   9 17:05:31   -36.854658c -5.04  -2.68
iter:  10 17:05:31   -36.853885c -4.23  -2.51
iter:  11 17:05:32   -36.853906c -6.23  -3.55
iter:  12 17:05:32   -36.853903c -6.37  -3.32
iter:  13 17:05:32   -36.853890c -6.10  -3.42
iter:  14 17:05:33   -36.853892c -7.04  -4.23c
iter:  15 17:05:33   -36.853890c -6.76  -3.78
iter:  16 17:05:33   -36.853890c -8.73c -4.66c

Converged after 16 iterations.

Dipole moment: (-0.871661, 0.503254, -0.000000) |e|*Ang

Energy contributions relative to reference atoms: (reference = -4110.512462)

Kinetic:        +34.706354
Potential:      -35.759814
External:        +0.000000
XC:             -35.834891
Entropy (-ST):   -0.001202
Local:           +0.035062
--------------------------
Free energy:    -36.854491
Extrapolated:   -36.853890

Showing only first 2 kpts
 Kpt  Band  Eigenvalues  Occupancy
  0     6      2.00911    2.00000
  0     7      2.01642    2.00000
  0     8      8.91481    0.00000
  0     9     13.48737    0.00000

  1     6      2.01004    2.00000
  1     7      2.01518    2.00000
  1     8      9.38186    0.00000
  1     9     12.57900    0.00000


Fermi level: 5.18951

Gap: 0.676 eV
Transition (v -> c):
  (s=0, k=57, n=7, [0.35, 0.35, 0.08]) -> (s=0, k=57, n=8, [0.35, 0.35, 0.08])
Stress tensor:
     0.000045     0.000000     0.000000
    -0.000000     0.000045     0.000000
     0.000000     0.000000    -0.000003
Timing:                              incl.     excl.
-----------------------------------------------------------
Hamiltonian:                         0.641     0.004   0.0% |
 Atomic:                             0.368     0.368   0.6% |
  XC Correction:                     0.000     0.000   0.0% |
 Calculate atomic Hamiltonians:      0.023     0.023   0.0% |
 Communicate:                        0.001     0.001   0.0% |
 Initialize Hamiltonian:             0.001     0.001   0.0% |
 Poisson:                            0.003     0.003   0.0% |
 XC 3D grid:                         0.242     0.242   0.4% |
LCAO initialization:                10.194     0.199   0.3% |
 LCAO eigensolver:                   3.688     0.004   0.0% |
  Calculate projections:             0.004     0.004   0.0% |
  DenseAtomicCorrection:             0.014     0.014   0.0% |
  Distribute overlap matrix:         0.002     0.002   0.0% |
  Orbital Layouts:                   0.024     0.024   0.0% |
  Potential matrix:                  3.604     3.604   5.6% |-|
  Sum over cells:                    0.036     0.036   0.1% |
 LCAO to grid:                       2.657     2.657   4.1% |-|
 Set positions (LCAO WFS):           3.650     0.622   1.0% |
  Basic WFS set positions:           0.015     0.015   0.0% |
  Basis functions set positions:     0.000     0.000   0.0% |
  P tci:                             0.946     0.946   1.5% ||
  ST tci:                            1.698     1.698   2.6% ||
  mktci:                             0.368     0.368   0.6% |
PWDescriptor:                        0.173     0.173   0.3% |
SCF-cycle:                          45.689     6.266   9.8% |---|
 Davidson:                          28.245     6.857  10.7% |---|
  Apply H:                           3.604     3.349   5.2% |-|
   HMM T:                            0.255     0.255   0.4% |
  Subspace diag:                     5.100     0.118   0.2% |
   calc_h_matrix:                    4.357     0.718   1.1% |
    Apply H:                         3.639     3.361   5.2% |-|
     HMM T:                          0.278     0.278   0.4% |
   diagonalize:                      0.274     0.274   0.4% |
   rotate_psi:                       0.352     0.352   0.5% |
  calc. matrices:                   11.062     3.875   6.0% |-|
   Apply H:                          7.188     6.682  10.4% |---|
    HMM T:                           0.505     0.505   0.8% |
  diagonalize:                       1.026     1.026   1.6% ||
  rotate_psi:                        0.596     0.596   0.9% |
 Density:                            3.334     0.002   0.0% |
  Atomic density matrices:           0.284     0.284   0.4% |
  Mix:                               0.672     0.672   1.0% |
  Multipole moments:                 0.019     0.019   0.0% |
  Pseudo density:                    2.357     1.636   2.5% ||
   Symmetrize density:               0.720     0.720   1.1% |
 Hamiltonian:                        7.723     0.051   0.1% |
  Atomic:                            4.062     4.062   6.3% |--|
   XC Correction:                    0.001     0.001   0.0% |
  Calculate atomic Hamiltonians:     0.287     0.287   0.4% |
  Communicate:                       0.038     0.038   0.1% |
  Poisson:                           0.039     0.039   0.1% |
  XC 3D grid:                        3.246     3.246   5.1% |-|
 Orthonormalize:                     0.121     0.008   0.0% |
  calc_s_matrix:                     0.031     0.031   0.0% |
  inverse-cholesky:                  0.008     0.008   0.0% |
  projections:                       0.062     0.062   0.1% |
  rotate_psi_s:                      0.012     0.012   0.0% |
Set symmetry:                        0.322     0.322   0.5% |
Stress:                              4.395     0.000   0.0% |
 Stress tensor:                      4.394     4.394   6.8% |--|
Other:                               2.828     2.828   4.4% |-|
-----------------------------------------------------------
Total:                                        64.242 100.0%

Memory usage: 136.71 MiB
Date: Mon Aug 15 17:05:34 2022
