10
Lattice="5.408 0.0 0.0 2.704 4.6834653836662445 0.0 0.0 0.0 12.141568" Properties=species:S:1:pos:R:3:tags:I:1:forces:R:3 energy=-81.38399677452213 dipole="14.245525296705637 13.650226654855096 -0.28032501016675265" free_energy=-81.57905041036871 pbc="T T F"
Ru       0.00000000       1.56115513       5.00000000        2       0.00000000      -0.07957180       0.43419788 
Ru       2.70400000       1.56115513       5.00000000        2       0.00000000      -0.16729794      -0.06292903 
Ru       1.35200000       3.90288782       5.00000000        2       0.02686225       0.09908726      -0.17305551 
Ru       4.05600000       3.90288782       5.00000000        2      -0.02686225       0.09908726      -0.17305551 
Ru      -0.00000000      -0.05295993       7.01478539        1       0.00000000       0.00462041      -0.00856119 
Ru       2.70400000      -0.21286747       7.17611279        1       0.00000000       0.00604413      -0.00295169 
Ru       1.33324189       2.25235770       7.10000893        1      -0.00352721       0.00796226       0.00270420 
Ru       4.07475811       2.25235770       7.10000893        1       0.00352721       0.00796226       0.00270420 
N       1.78265441       1.04725189       8.46156205        0      -0.00185606       0.00491562       0.00743357 
N       3.62534558       1.04725187       8.46156203        0       0.00185606       0.00491562       0.00743357 
